version 2
run General-0-20231115-13:08:55-26372
attr configname General
attr datetime 20231115-13:08:55
attr experiment General
attr inifile omnetpp.ini
attr iterationvars ""
attr iterationvars2 $repetition=0
attr measurement ""
attr network Scenario
attr processid 26372
attr repetition 0
attr replication #0
attr resultdir results
attr runnumber 0
attr seedset 0

vector 2  Scenario.UAV[0].energyStorage  residualCapacity:vector  ETV
attr interpolationmode  linear
attr source  residualCapacityChanged
attr title  "Residual capacity, vector"
vector 1  Scenario.UAV[0].energyStorage  powerGeneration:vector  ETV
attr interpolationmode  sample-hold
attr source  powerGenerationChanged
attr title  "Power generation, vector"
vector 3  Scenario.UAV[0].energyGenerator  powerGeneration:vector  ETV
attr interpolationmode  sample-hold
attr source  powerGenerationChanged
attr title  "Power generation, vector"
vector 20  Scenario.UAV[0].wlan[0].queue  queueLength:vector  ETV
attr interpolationmode  sample-hold
attr title  "queue length, vector"
vector 0  Scenario.UAV[0].energyStorage  powerConsumption:vector  ETV
attr interpolationmode  sample-hold
attr source  powerConsumptionChanged
attr title  "Power consumption, vector"
vector 32  Scenario.UAV[1].energyStorage  residualCapacity:vector  ETV
attr interpolationmode  linear
attr source  residualCapacityChanged
attr title  "Residual capacity, vector"
vector 31  Scenario.UAV[1].energyStorage  powerGeneration:vector  ETV
attr interpolationmode  sample-hold
attr source  powerGenerationChanged
attr title  "Power generation, vector"
vector 33  Scenario.UAV[1].energyGenerator  powerGeneration:vector  ETV
attr interpolationmode  sample-hold
attr source  powerGenerationChanged
attr title  "Power generation, vector"
vector 50  Scenario.UAV[1].wlan[0].queue  queueLength:vector  ETV
attr interpolationmode  sample-hold
attr title  "queue length, vector"
vector 30  Scenario.UAV[1].energyStorage  powerConsumption:vector  ETV
attr interpolationmode  sample-hold
attr source  powerConsumptionChanged
attr title  "Power consumption, vector"
vector 62  Scenario.UAV[2].energyStorage  residualCapacity:vector  ETV
attr interpolationmode  linear
attr source  residualCapacityChanged
attr title  "Residual capacity, vector"
vector 61  Scenario.UAV[2].energyStorage  powerGeneration:vector  ETV
attr interpolationmode  sample-hold
attr source  powerGenerationChanged
attr title  "Power generation, vector"
vector 63  Scenario.UAV[2].energyGenerator  powerGeneration:vector  ETV
attr interpolationmode  sample-hold
attr source  powerGenerationChanged
attr title  "Power generation, vector"
vector 80  Scenario.UAV[2].wlan[0].queue  queueLength:vector  ETV
attr interpolationmode  sample-hold
attr title  "queue length, vector"
vector 60  Scenario.UAV[2].energyStorage  powerConsumption:vector  ETV
attr interpolationmode  sample-hold
attr source  powerConsumptionChanged
attr title  "Power consumption, vector"
vector 92  Scenario.UAV[3].energyStorage  residualCapacity:vector  ETV
attr interpolationmode  linear
attr source  residualCapacityChanged
attr title  "Residual capacity, vector"
vector 91  Scenario.UAV[3].energyStorage  powerGeneration:vector  ETV
attr interpolationmode  sample-hold
attr source  powerGenerationChanged
attr title  "Power generation, vector"
vector 93  Scenario.UAV[3].energyGenerator  powerGeneration:vector  ETV
attr interpolationmode  sample-hold
attr source  powerGenerationChanged
attr title  "Power generation, vector"
vector 110  Scenario.UAV[3].wlan[0].queue  queueLength:vector  ETV
attr interpolationmode  sample-hold
attr title  "queue length, vector"
vector 90  Scenario.UAV[3].energyStorage  powerConsumption:vector  ETV
attr interpolationmode  sample-hold
attr source  powerConsumptionChanged
attr title  "Power consumption, vector"
vector 122  Scenario.UAV[4].energyStorage  residualCapacity:vector  ETV
attr interpolationmode  linear
attr source  residualCapacityChanged
attr title  "Residual capacity, vector"
vector 121  Scenario.UAV[4].energyStorage  powerGeneration:vector  ETV
attr interpolationmode  sample-hold
attr source  powerGenerationChanged
attr title  "Power generation, vector"
vector 123  Scenario.UAV[4].energyGenerator  powerGeneration:vector  ETV
attr interpolationmode  sample-hold
attr source  powerGenerationChanged
attr title  "Power generation, vector"
vector 140  Scenario.UAV[4].wlan[0].queue  queueLength:vector  ETV
attr interpolationmode  sample-hold
attr title  "queue length, vector"
vector 120  Scenario.UAV[4].energyStorage  powerConsumption:vector  ETV
attr interpolationmode  sample-hold
attr source  powerConsumptionChanged
attr title  "Power consumption, vector"
vector 152  Scenario.UAV[5].energyStorage  residualCapacity:vector  ETV
attr interpolationmode  linear
attr source  residualCapacityChanged
attr title  "Residual capacity, vector"
vector 151  Scenario.UAV[5].energyStorage  powerGeneration:vector  ETV
attr interpolationmode  sample-hold
attr source  powerGenerationChanged
attr title  "Power generation, vector"
vector 153  Scenario.UAV[5].energyGenerator  powerGeneration:vector  ETV
attr interpolationmode  sample-hold
attr source  powerGenerationChanged
attr title  "Power generation, vector"
vector 170  Scenario.UAV[5].wlan[0].queue  queueLength:vector  ETV
attr interpolationmode  sample-hold
attr title  "queue length, vector"
vector 150  Scenario.UAV[5].energyStorage  powerConsumption:vector  ETV
attr interpolationmode  sample-hold
attr source  powerConsumptionChanged
attr title  "Power consumption, vector"
vector 182  Scenario.UAV[6].energyStorage  residualCapacity:vector  ETV
attr interpolationmode  linear
attr source  residualCapacityChanged
attr title  "Residual capacity, vector"
vector 181  Scenario.UAV[6].energyStorage  powerGeneration:vector  ETV
attr interpolationmode  sample-hold
attr source  powerGenerationChanged
attr title  "Power generation, vector"
vector 183  Scenario.UAV[6].energyGenerator  powerGeneration:vector  ETV
attr interpolationmode  sample-hold
attr source  powerGenerationChanged
attr title  "Power generation, vector"
vector 200  Scenario.UAV[6].wlan[0].queue  queueLength:vector  ETV
attr interpolationmode  sample-hold
attr title  "queue length, vector"
vector 180  Scenario.UAV[6].energyStorage  powerConsumption:vector  ETV
attr interpolationmode  sample-hold
attr source  powerConsumptionChanged
attr title  "Power consumption, vector"
vector 212  Scenario.UAV[7].energyStorage  residualCapacity:vector  ETV
attr interpolationmode  linear
attr source  residualCapacityChanged
attr title  "Residual capacity, vector"
vector 211  Scenario.UAV[7].energyStorage  powerGeneration:vector  ETV
attr interpolationmode  sample-hold
attr source  powerGenerationChanged
attr title  "Power generation, vector"
vector 213  Scenario.UAV[7].energyGenerator  powerGeneration:vector  ETV
attr interpolationmode  sample-hold
attr source  powerGenerationChanged
attr title  "Power generation, vector"
vector 230  Scenario.UAV[7].wlan[0].queue  queueLength:vector  ETV
attr interpolationmode  sample-hold
attr title  "queue length, vector"
vector 210  Scenario.UAV[7].energyStorage  powerConsumption:vector  ETV
attr interpolationmode  sample-hold
attr source  powerConsumptionChanged
attr title  "Power consumption, vector"
vector 242  Scenario.UAV[8].energyStorage  residualCapacity:vector  ETV
attr interpolationmode  linear
attr source  residualCapacityChanged
attr title  "Residual capacity, vector"
vector 241  Scenario.UAV[8].energyStorage  powerGeneration:vector  ETV
attr interpolationmode  sample-hold
attr source  powerGenerationChanged
attr title  "Power generation, vector"
vector 243  Scenario.UAV[8].energyGenerator  powerGeneration:vector  ETV
attr interpolationmode  sample-hold
attr source  powerGenerationChanged
attr title  "Power generation, vector"
vector 260  Scenario.UAV[8].wlan[0].queue  queueLength:vector  ETV
attr interpolationmode  sample-hold
attr title  "queue length, vector"
vector 240  Scenario.UAV[8].energyStorage  powerConsumption:vector  ETV
attr interpolationmode  sample-hold
attr source  powerConsumptionChanged
attr title  "Power consumption, vector"
vector 272  Scenario.UAV[9].energyStorage  residualCapacity:vector  ETV
attr interpolationmode  linear
attr source  residualCapacityChanged
attr title  "Residual capacity, vector"
vector 271  Scenario.UAV[9].energyStorage  powerGeneration:vector  ETV
attr interpolationmode  sample-hold
attr source  powerGenerationChanged
attr title  "Power generation, vector"
vector 273  Scenario.UAV[9].energyGenerator  powerGeneration:vector  ETV
attr interpolationmode  sample-hold
attr source  powerGenerationChanged
attr title  "Power generation, vector"
vector 290  Scenario.UAV[9].wlan[0].queue  queueLength:vector  ETV
attr interpolationmode  sample-hold
attr title  "queue length, vector"
vector 270  Scenario.UAV[9].energyStorage  powerConsumption:vector  ETV
attr interpolationmode  sample-hold
attr source  powerConsumptionChanged
attr title  "Power consumption, vector"
vector 302  Scenario.UAV[10].energyStorage  residualCapacity:vector  ETV
attr interpolationmode  linear
attr source  residualCapacityChanged
attr title  "Residual capacity, vector"
vector 301  Scenario.UAV[10].energyStorage  powerGeneration:vector  ETV
attr interpolationmode  sample-hold
attr source  powerGenerationChanged
attr title  "Power generation, vector"
vector 303  Scenario.UAV[10].energyGenerator  powerGeneration:vector  ETV
attr interpolationmode  sample-hold
attr source  powerGenerationChanged
attr title  "Power generation, vector"
vector 320  Scenario.UAV[10].wlan[0].queue  queueLength:vector  ETV
attr interpolationmode  sample-hold
attr title  "queue length, vector"
vector 300  Scenario.UAV[10].energyStorage  powerConsumption:vector  ETV
attr interpolationmode  sample-hold
attr source  powerConsumptionChanged
attr title  "Power consumption, vector"
vector 332  Scenario.UAV[11].energyStorage  residualCapacity:vector  ETV
attr interpolationmode  linear
attr source  residualCapacityChanged
attr title  "Residual capacity, vector"
vector 331  Scenario.UAV[11].energyStorage  powerGeneration:vector  ETV
attr interpolationmode  sample-hold
attr source  powerGenerationChanged
attr title  "Power generation, vector"
vector 333  Scenario.UAV[11].energyGenerator  powerGeneration:vector  ETV
attr interpolationmode  sample-hold
attr source  powerGenerationChanged
attr title  "Power generation, vector"
vector 350  Scenario.UAV[11].wlan[0].queue  queueLength:vector  ETV
attr interpolationmode  sample-hold
attr title  "queue length, vector"
vector 330  Scenario.UAV[11].energyStorage  powerConsumption:vector  ETV
attr interpolationmode  sample-hold
attr source  powerConsumptionChanged
attr title  "Power consumption, vector"
vector 362  Scenario.UAV[12].energyStorage  residualCapacity:vector  ETV
attr interpolationmode  linear
attr source  residualCapacityChanged
attr title  "Residual capacity, vector"
vector 361  Scenario.UAV[12].energyStorage  powerGeneration:vector  ETV
attr interpolationmode  sample-hold
attr source  powerGenerationChanged
attr title  "Power generation, vector"
vector 363  Scenario.UAV[12].energyGenerator  powerGeneration:vector  ETV
attr interpolationmode  sample-hold
attr source  powerGenerationChanged
attr title  "Power generation, vector"
vector 380  Scenario.UAV[12].wlan[0].queue  queueLength:vector  ETV
attr interpolationmode  sample-hold
attr title  "queue length, vector"
vector 360  Scenario.UAV[12].energyStorage  powerConsumption:vector  ETV
attr interpolationmode  sample-hold
attr source  powerConsumptionChanged
attr title  "Power consumption, vector"
vector 392  Scenario.UAV[13].energyStorage  residualCapacity:vector  ETV
attr interpolationmode  linear
attr source  residualCapacityChanged
attr title  "Residual capacity, vector"
vector 391  Scenario.UAV[13].energyStorage  powerGeneration:vector  ETV
attr interpolationmode  sample-hold
attr source  powerGenerationChanged
attr title  "Power generation, vector"
vector 393  Scenario.UAV[13].energyGenerator  powerGeneration:vector  ETV
attr interpolationmode  sample-hold
attr source  powerGenerationChanged
attr title  "Power generation, vector"
vector 410  Scenario.UAV[13].wlan[0].queue  queueLength:vector  ETV
attr interpolationmode  sample-hold
attr title  "queue length, vector"
vector 390  Scenario.UAV[13].energyStorage  powerConsumption:vector  ETV
attr interpolationmode  sample-hold
attr source  powerConsumptionChanged
attr title  "Power consumption, vector"
vector 422  Scenario.UAV[14].energyStorage  residualCapacity:vector  ETV
attr interpolationmode  linear
attr source  residualCapacityChanged
attr title  "Residual capacity, vector"
vector 421  Scenario.UAV[14].energyStorage  powerGeneration:vector  ETV
attr interpolationmode  sample-hold
attr source  powerGenerationChanged
attr title  "Power generation, vector"
vector 423  Scenario.UAV[14].energyGenerator  powerGeneration:vector  ETV
attr interpolationmode  sample-hold
attr source  powerGenerationChanged
attr title  "Power generation, vector"
vector 440  Scenario.UAV[14].wlan[0].queue  queueLength:vector  ETV
attr interpolationmode  sample-hold
attr title  "queue length, vector"
vector 420  Scenario.UAV[14].energyStorage  powerConsumption:vector  ETV
attr interpolationmode  sample-hold
attr source  powerConsumptionChanged
attr title  "Power consumption, vector"
vector 452  Scenario.UAV[15].energyStorage  residualCapacity:vector  ETV
attr interpolationmode  linear
attr source  residualCapacityChanged
attr title  "Residual capacity, vector"
vector 451  Scenario.UAV[15].energyStorage  powerGeneration:vector  ETV
attr interpolationmode  sample-hold
attr source  powerGenerationChanged
attr title  "Power generation, vector"
vector 453  Scenario.UAV[15].energyGenerator  powerGeneration:vector  ETV
attr interpolationmode  sample-hold
attr source  powerGenerationChanged
attr title  "Power generation, vector"
vector 470  Scenario.UAV[15].wlan[0].queue  queueLength:vector  ETV
attr interpolationmode  sample-hold
attr title  "queue length, vector"
vector 450  Scenario.UAV[15].energyStorage  powerConsumption:vector  ETV
attr interpolationmode  sample-hold
attr source  powerConsumptionChanged
attr title  "Power consumption, vector"
vector 482  Scenario.UAV[16].energyStorage  residualCapacity:vector  ETV
attr interpolationmode  linear
attr source  residualCapacityChanged
attr title  "Residual capacity, vector"
vector 481  Scenario.UAV[16].energyStorage  powerGeneration:vector  ETV
attr interpolationmode  sample-hold
attr source  powerGenerationChanged
attr title  "Power generation, vector"
vector 483  Scenario.UAV[16].energyGenerator  powerGeneration:vector  ETV
attr interpolationmode  sample-hold
attr source  powerGenerationChanged
attr title  "Power generation, vector"
vector 500  Scenario.UAV[16].wlan[0].queue  queueLength:vector  ETV
attr interpolationmode  sample-hold
attr title  "queue length, vector"
vector 480  Scenario.UAV[16].energyStorage  powerConsumption:vector  ETV
attr interpolationmode  sample-hold
attr source  powerConsumptionChanged
attr title  "Power consumption, vector"
vector 512  Scenario.UAV[17].energyStorage  residualCapacity:vector  ETV
attr interpolationmode  linear
attr source  residualCapacityChanged
attr title  "Residual capacity, vector"
vector 511  Scenario.UAV[17].energyStorage  powerGeneration:vector  ETV
attr interpolationmode  sample-hold
attr source  powerGenerationChanged
attr title  "Power generation, vector"
vector 513  Scenario.UAV[17].energyGenerator  powerGeneration:vector  ETV
attr interpolationmode  sample-hold
attr source  powerGenerationChanged
attr title  "Power generation, vector"
vector 530  Scenario.UAV[17].wlan[0].queue  queueLength:vector  ETV
attr interpolationmode  sample-hold
attr title  "queue length, vector"
vector 510  Scenario.UAV[17].energyStorage  powerConsumption:vector  ETV
attr interpolationmode  sample-hold
attr source  powerConsumptionChanged
attr title  "Power consumption, vector"
vector 542  Scenario.UAV[18].energyStorage  residualCapacity:vector  ETV
attr interpolationmode  linear
attr source  residualCapacityChanged
attr title  "Residual capacity, vector"
vector 541  Scenario.UAV[18].energyStorage  powerGeneration:vector  ETV
attr interpolationmode  sample-hold
attr source  powerGenerationChanged
attr title  "Power generation, vector"
vector 543  Scenario.UAV[18].energyGenerator  powerGeneration:vector  ETV
attr interpolationmode  sample-hold
attr source  powerGenerationChanged
attr title  "Power generation, vector"
vector 560  Scenario.UAV[18].wlan[0].queue  queueLength:vector  ETV
attr interpolationmode  sample-hold
attr title  "queue length, vector"
vector 540  Scenario.UAV[18].energyStorage  powerConsumption:vector  ETV
attr interpolationmode  sample-hold
attr source  powerConsumptionChanged
attr title  "Power consumption, vector"
vector 572  Scenario.UAV[19].energyStorage  residualCapacity:vector  ETV
attr interpolationmode  linear
attr source  residualCapacityChanged
attr title  "Residual capacity, vector"
vector 571  Scenario.UAV[19].energyStorage  powerGeneration:vector  ETV
attr interpolationmode  sample-hold
attr source  powerGenerationChanged
attr title  "Power generation, vector"
vector 573  Scenario.UAV[19].energyGenerator  powerGeneration:vector  ETV
attr interpolationmode  sample-hold
attr source  powerGenerationChanged
attr title  "Power generation, vector"
vector 590  Scenario.UAV[19].wlan[0].queue  queueLength:vector  ETV
attr interpolationmode  sample-hold
attr title  "queue length, vector"
vector 570  Scenario.UAV[19].energyStorage  powerConsumption:vector  ETV
attr interpolationmode  sample-hold
attr source  powerConsumptionChanged
attr title  "Power consumption, vector"
vector 602  Scenario.UAV[20].energyStorage  residualCapacity:vector  ETV
attr interpolationmode  linear
attr source  residualCapacityChanged
attr title  "Residual capacity, vector"
vector 601  Scenario.UAV[20].energyStorage  powerGeneration:vector  ETV
attr interpolationmode  sample-hold
attr source  powerGenerationChanged
attr title  "Power generation, vector"
vector 603  Scenario.UAV[20].energyGenerator  powerGeneration:vector  ETV
attr interpolationmode  sample-hold
attr source  powerGenerationChanged
attr title  "Power generation, vector"
vector 620  Scenario.UAV[20].wlan[0].queue  queueLength:vector  ETV
attr interpolationmode  sample-hold
attr title  "queue length, vector"
vector 600  Scenario.UAV[20].energyStorage  powerConsumption:vector  ETV
attr interpolationmode  sample-hold
attr source  powerConsumptionChanged
attr title  "Power consumption, vector"
vector 632  Scenario.UAV[21].energyStorage  residualCapacity:vector  ETV
attr interpolationmode  linear
attr source  residualCapacityChanged
attr title  "Residual capacity, vector"
vector 631  Scenario.UAV[21].energyStorage  powerGeneration:vector  ETV
attr interpolationmode  sample-hold
attr source  powerGenerationChanged
attr title  "Power generation, vector"
vector 633  Scenario.UAV[21].energyGenerator  powerGeneration:vector  ETV
attr interpolationmode  sample-hold
attr source  powerGenerationChanged
attr title  "Power generation, vector"
vector 650  Scenario.UAV[21].wlan[0].queue  queueLength:vector  ETV
attr interpolationmode  sample-hold
attr title  "queue length, vector"
vector 630  Scenario.UAV[21].energyStorage  powerConsumption:vector  ETV
attr interpolationmode  sample-hold
attr source  powerConsumptionChanged
attr title  "Power consumption, vector"
vector 662  Scenario.UAV[22].energyStorage  residualCapacity:vector  ETV
attr interpolationmode  linear
attr source  residualCapacityChanged
attr title  "Residual capacity, vector"
vector 661  Scenario.UAV[22].energyStorage  powerGeneration:vector  ETV
attr interpolationmode  sample-hold
attr source  powerGenerationChanged
attr title  "Power generation, vector"
vector 663  Scenario.UAV[22].energyGenerator  powerGeneration:vector  ETV
attr interpolationmode  sample-hold
attr source  powerGenerationChanged
attr title  "Power generation, vector"
vector 680  Scenario.UAV[22].wlan[0].queue  queueLength:vector  ETV
attr interpolationmode  sample-hold
attr title  "queue length, vector"
vector 660  Scenario.UAV[22].energyStorage  powerConsumption:vector  ETV
attr interpolationmode  sample-hold
attr source  powerConsumptionChanged
attr title  "Power consumption, vector"
vector 692  Scenario.UAV[23].energyStorage  residualCapacity:vector  ETV
attr interpolationmode  linear
attr source  residualCapacityChanged
attr title  "Residual capacity, vector"
vector 691  Scenario.UAV[23].energyStorage  powerGeneration:vector  ETV
attr interpolationmode  sample-hold
attr source  powerGenerationChanged
attr title  "Power generation, vector"
vector 693  Scenario.UAV[23].energyGenerator  powerGeneration:vector  ETV
attr interpolationmode  sample-hold
attr source  powerGenerationChanged
attr title  "Power generation, vector"
vector 710  Scenario.UAV[23].wlan[0].queue  queueLength:vector  ETV
attr interpolationmode  sample-hold
attr title  "queue length, vector"
vector 690  Scenario.UAV[23].energyStorage  powerConsumption:vector  ETV
attr interpolationmode  sample-hold
attr source  powerConsumptionChanged
attr title  "Power consumption, vector"
vector 722  Scenario.UAV[24].energyStorage  residualCapacity:vector  ETV
attr interpolationmode  linear
attr source  residualCapacityChanged
attr title  "Residual capacity, vector"
vector 721  Scenario.UAV[24].energyStorage  powerGeneration:vector  ETV
attr interpolationmode  sample-hold
attr source  powerGenerationChanged
attr title  "Power generation, vector"
vector 723  Scenario.UAV[24].energyGenerator  powerGeneration:vector  ETV
attr interpolationmode  sample-hold
attr source  powerGenerationChanged
attr title  "Power generation, vector"
vector 740  Scenario.UAV[24].wlan[0].queue  queueLength:vector  ETV
attr interpolationmode  sample-hold
attr title  "queue length, vector"
vector 720  Scenario.UAV[24].energyStorage  powerConsumption:vector  ETV
attr interpolationmode  sample-hold
attr source  powerConsumptionChanged
attr title  "Power consumption, vector"
vector 752  Scenario.UAV[25].energyStorage  residualCapacity:vector  ETV
attr interpolationmode  linear
attr source  residualCapacityChanged
attr title  "Residual capacity, vector"
vector 751  Scenario.UAV[25].energyStorage  powerGeneration:vector  ETV
attr interpolationmode  sample-hold
attr source  powerGenerationChanged
attr title  "Power generation, vector"
vector 753  Scenario.UAV[25].energyGenerator  powerGeneration:vector  ETV
attr interpolationmode  sample-hold
attr source  powerGenerationChanged
attr title  "Power generation, vector"
vector 770  Scenario.UAV[25].wlan[0].queue  queueLength:vector  ETV
attr interpolationmode  sample-hold
attr title  "queue length, vector"
vector 750  Scenario.UAV[25].energyStorage  powerConsumption:vector  ETV
attr interpolationmode  sample-hold
attr source  powerConsumptionChanged
attr title  "Power consumption, vector"
vector 782  Scenario.UAV[26].energyStorage  residualCapacity:vector  ETV
attr interpolationmode  linear
attr source  residualCapacityChanged
attr title  "Residual capacity, vector"
vector 781  Scenario.UAV[26].energyStorage  powerGeneration:vector  ETV
attr interpolationmode  sample-hold
attr source  powerGenerationChanged
attr title  "Power generation, vector"
vector 783  Scenario.UAV[26].energyGenerator  powerGeneration:vector  ETV
attr interpolationmode  sample-hold
attr source  powerGenerationChanged
attr title  "Power generation, vector"
vector 800  Scenario.UAV[26].wlan[0].queue  queueLength:vector  ETV
attr interpolationmode  sample-hold
attr title  "queue length, vector"
vector 780  Scenario.UAV[26].energyStorage  powerConsumption:vector  ETV
attr interpolationmode  sample-hold
attr source  powerConsumptionChanged
attr title  "Power consumption, vector"
vector 812  Scenario.UAV[27].energyStorage  residualCapacity:vector  ETV
attr interpolationmode  linear
attr source  residualCapacityChanged
attr title  "Residual capacity, vector"
vector 811  Scenario.UAV[27].energyStorage  powerGeneration:vector  ETV
attr interpolationmode  sample-hold
attr source  powerGenerationChanged
attr title  "Power generation, vector"
vector 813  Scenario.UAV[27].energyGenerator  powerGeneration:vector  ETV
attr interpolationmode  sample-hold
attr source  powerGenerationChanged
attr title  "Power generation, vector"
vector 830  Scenario.UAV[27].wlan[0].queue  queueLength:vector  ETV
attr interpolationmode  sample-hold
attr title  "queue length, vector"
vector 810  Scenario.UAV[27].energyStorage  powerConsumption:vector  ETV
attr interpolationmode  sample-hold
attr source  powerConsumptionChanged
attr title  "Power consumption, vector"
vector 842  Scenario.UAV[28].energyStorage  residualCapacity:vector  ETV
attr interpolationmode  linear
attr source  residualCapacityChanged
attr title  "Residual capacity, vector"
vector 841  Scenario.UAV[28].energyStorage  powerGeneration:vector  ETV
attr interpolationmode  sample-hold
attr source  powerGenerationChanged
attr title  "Power generation, vector"
vector 843  Scenario.UAV[28].energyGenerator  powerGeneration:vector  ETV
attr interpolationmode  sample-hold
attr source  powerGenerationChanged
attr title  "Power generation, vector"
vector 860  Scenario.UAV[28].wlan[0].queue  queueLength:vector  ETV
attr interpolationmode  sample-hold
attr title  "queue length, vector"
vector 840  Scenario.UAV[28].energyStorage  powerConsumption:vector  ETV
attr interpolationmode  sample-hold
attr source  powerConsumptionChanged
attr title  "Power consumption, vector"
vector 872  Scenario.UAV[29].energyStorage  residualCapacity:vector  ETV
attr interpolationmode  linear
attr source  residualCapacityChanged
attr title  "Residual capacity, vector"
vector 871  Scenario.UAV[29].energyStorage  powerGeneration:vector  ETV
attr interpolationmode  sample-hold
attr source  powerGenerationChanged
attr title  "Power generation, vector"
vector 873  Scenario.UAV[29].energyGenerator  powerGeneration:vector  ETV
attr interpolationmode  sample-hold
attr source  powerGenerationChanged
attr title  "Power generation, vector"
vector 890  Scenario.UAV[29].wlan[0].queue  queueLength:vector  ETV
attr interpolationmode  sample-hold
attr title  "queue length, vector"
vector 870  Scenario.UAV[29].energyStorage  powerConsumption:vector  ETV
attr interpolationmode  sample-hold
attr source  powerConsumptionChanged
attr title  "Power consumption, vector"
vector 902  Scenario.Gsc[0].energyStorage  residualCapacity:vector  ETV
attr interpolationmode  linear
attr source  residualCapacityChanged
attr title  "Residual capacity, vector"
vector 901  Scenario.Gsc[0].energyStorage  powerGeneration:vector  ETV
attr interpolationmode  sample-hold
attr source  powerGenerationChanged
attr title  "Power generation, vector"
vector 903  Scenario.Gsc[0].energyGenerator  powerGeneration:vector  ETV
attr interpolationmode  sample-hold
attr source  powerGenerationChanged
attr title  "Power generation, vector"
vector 920  Scenario.Gsc[0].wlan[0].queue  queueLength:vector  ETV
attr interpolationmode  sample-hold
attr title  "queue length, vector"
vector 900  Scenario.Gsc[0].energyStorage  powerConsumption:vector  ETV
attr interpolationmode  sample-hold
attr source  powerConsumptionChanged
attr title  "Power consumption, vector"
vector 26  Scenario.UAV[0].wlan[0].radio  radioMode:vector  ETV
attr interpolationmode  sample-hold
attr source  radioModeChanged
attr title  "Radio mode, vector"
vector 56  Scenario.UAV[1].wlan[0].radio  radioMode:vector  ETV
attr interpolationmode  sample-hold
attr source  radioModeChanged
attr title  "Radio mode, vector"
vector 86  Scenario.UAV[2].wlan[0].radio  radioMode:vector  ETV
attr interpolationmode  sample-hold
attr source  radioModeChanged
attr title  "Radio mode, vector"
vector 116  Scenario.UAV[3].wlan[0].radio  radioMode:vector  ETV
attr interpolationmode  sample-hold
attr source  radioModeChanged
attr title  "Radio mode, vector"
vector 146  Scenario.UAV[4].wlan[0].radio  radioMode:vector  ETV
attr interpolationmode  sample-hold
attr source  radioModeChanged
attr title  "Radio mode, vector"
vector 176  Scenario.UAV[5].wlan[0].radio  radioMode:vector  ETV
attr interpolationmode  sample-hold
attr source  radioModeChanged
attr title  "Radio mode, vector"
vector 206  Scenario.UAV[6].wlan[0].radio  radioMode:vector  ETV
attr interpolationmode  sample-hold
attr source  radioModeChanged
attr title  "Radio mode, vector"
vector 236  Scenario.UAV[7].wlan[0].radio  radioMode:vector  ETV
attr interpolationmode  sample-hold
attr source  radioModeChanged
attr title  "Radio mode, vector"
vector 266  Scenario.UAV[8].wlan[0].radio  radioMode:vector  ETV
attr interpolationmode  sample-hold
attr source  radioModeChanged
attr title  "Radio mode, vector"
vector 296  Scenario.UAV[9].wlan[0].radio  radioMode:vector  ETV
attr interpolationmode  sample-hold
attr source  radioModeChanged
attr title  "Radio mode, vector"
vector 326  Scenario.UAV[10].wlan[0].radio  radioMode:vector  ETV
attr interpolationmode  sample-hold
attr source  radioModeChanged
attr title  "Radio mode, vector"
vector 356  Scenario.UAV[11].wlan[0].radio  radioMode:vector  ETV
attr interpolationmode  sample-hold
attr source  radioModeChanged
attr title  "Radio mode, vector"
vector 386  Scenario.UAV[12].wlan[0].radio  radioMode:vector  ETV
attr interpolationmode  sample-hold
attr source  radioModeChanged
attr title  "Radio mode, vector"
vector 416  Scenario.UAV[13].wlan[0].radio  radioMode:vector  ETV
attr interpolationmode  sample-hold
attr source  radioModeChanged
attr title  "Radio mode, vector"
vector 446  Scenario.UAV[14].wlan[0].radio  radioMode:vector  ETV
attr interpolationmode  sample-hold
attr source  radioModeChanged
attr title  "Radio mode, vector"
vector 476  Scenario.UAV[15].wlan[0].radio  radioMode:vector  ETV
attr interpolationmode  sample-hold
attr source  radioModeChanged